3
DFTB+ release-gate geometry
O -0.00566600  0.40130200  0.00000000
H  0.79261600 -0.19855100  0.00000000
H -0.78695000 -0.20275100  0.00000000
