   24           
Geometry Step: 23
    O      0.00000003     -0.00000060     -2.14906255      6.45170211
    O     -0.00000001      0.00000032     -7.56375986      6.45170117
    C     -3.70943130     -0.00000041     -5.55541507      4.06573254
    C     -2.50358224      0.00000055     -6.25344004      4.05635404
    C     -1.28152402      0.00000064     -5.56329596      4.05319169
    C     -1.28152226     -0.00000048     -4.14952765      4.05319299
    C     -2.50358591     -0.00000218     -3.45938372      4.05635329
    C     -3.70942822     -0.00000196     -4.15740715      4.06573042
    C      0.00000004      0.00000235     -6.33321909      3.57768382
    C     -0.00000003      0.00000103     -3.37960436      3.57768340
    C      1.28152286      0.00000564     -4.14952745      4.05319251
    C      1.28152346      0.00000677     -5.56329581      4.05319217
    C      2.50358346      0.00001200     -6.25343979      4.05635377
    H      2.48494730      0.00001319     -7.34030311      0.89492446
    C      3.70943026      0.00001569     -5.55541540      4.06573185
    C      3.70942928      0.00001410     -4.15740743      4.06573112
    C      2.50358473      0.00000924     -3.45938351      4.05635352
    H     -4.65151464      0.00000015     -6.09787561      0.91510467
    H     -2.48494736      0.00000157     -7.34030301      0.89492435
    H     -2.48494723     -0.00000334     -2.37251966      0.89492456
    H     -4.65151524     -0.00000279     -3.61494721      0.91510621
    H      4.65151483      0.00001973     -6.09787570      0.91510518
    H      4.65151507      0.00001672     -3.61494731      0.91510569
    H      2.48494732      0.00000821     -2.37251974      0.89492448
